ITEM: TIMESTEP
0.000
ITEM: NUMBER OF ATOMS
4
ITEM: BOX BOUNDS pp pp pp
0.00	3.6000000000e-10
0.00	3.6000000000e-10
0.00	3.6000000000e-10
ITEM: ATOMS id type x y z
1	1	0.0000000000e+00	0.0000000000e+00	0.0000000000e+00
2	1	1.8000000000e-10	1.8000000000e-10	0.0000000000e+00
3	1	1.8000000000e-10	0.0000000000e+00	1.8000000000e-10
4	1	0.0000000000e+00	1.8000000000e-10	1.8000000000e-10
