ITEM: TIMESTEP
0.000000e+00
ITEM: NUMBER OF ATOMS
32
ITEM: BOX BOUNDS pp pp pp
0.0 2.000000e+00
0.0 2.000000e+00
0.0 2.000000e+00
ITEM: ATOMS id type x y z
1 1 -7.762227e-04 3.933751e-06 1.519827e-04
2 1 4.999411e-01 5.002126e-01 -1.069757e-03
3 1 5.004493e-01 4.407847e-04 5.003366e-01
4 1 3.324994e-04 5.007033e-01 4.992428e-01
5 1 7.600588e-04 7.443062e-05 1.000124e+00
6 1 5.002788e-01 4.998872e-01 1.000637e+00
7 1 5.004425e-01 2.883730e-04 1.500378e+00
8 1 2.489261e-04 5.000749e-01 1.500595e+00
9 1 -1.041236e-03 9.990504e-01 5.795785e-05
10 1 5.006987e-01 1.500286e+00 -5.122789e-04
11 1 5.001298e-01 9.995898e-01 4.991970e-01
12 1 5.055047e-04 1.498912e+00 5.006778e-01
13 1 -5.423719e-04 1.000454e+00 9.991221e-01
14 1 4.998542e-01 1.499907e+00 1.000785e+00
15 1 4.994521e-01 1.000175e+00 1.498942e+00
16 1 -6.137685e-04 1.500256e+00 1.499258e+00
17 1 1.000125e+00 3.457155e-04 4.058146e-04
18 1 1.499390e+00 4.993750e-01 6.657026e-04
19 1 1.500656e+00 -3.659748e-04 5.007565e-01
20 1 1.000139e+00 4.995637e-01 5.004907e-01
21 1 1.000565e+00 -3.794340e-04 1.000601e+00
22 1 1.500145e+00 5.003142e-01 9.990922e-01
23 1 1.499776e+00 2.596686e-04 1.498988e+00
24 1 1.000254e+00 5.005526e-01 1.500684e+00
25 1 1.000774e+00 1.000308e+00 4.848617e-04
26 1 1.499949e+00 1.499081e+00 -1.015742e-03
27 1 1.500015e+00 1.000332e+00 5.002614e-01
28 1 9.990950e-01 1.500505e+00 4.995757e-01
29 1 9.999833e-01 1.000499e+00 1.000329e+00
30 1 1.499358e+00 1.499865e+00 1.000220e+00
31 1 1.499650e+00 9.989814e-01 1.499865e+00
32 1 1.000005e+00 1.500448e+00 1.500672e+00
ITEM: TIMESTEP
5.000000e-14
ITEM: NUMBER OF ATOMS
32
ITEM: BOX BOUNDS pp pp pp
0.0 2.000000e+00
0.0 2.000000e+00
0.0 2.000000e+00
ITEM: ATOMS id type x y z
1 1 -3.855846e-02 -4.315812e-03 8.040035e-03
2 1 5.107196e-01 5.056957e-01 -4.693295e-02
3 1 5.110326e-01 2.688667e-02 5.026193e-01
4 1 2.297723e-02 5.300514e-01 4.723277e-01
5 1 4.376523e-02 2.864302e-03 1.000687e+00
6 1 5.240113e-01 4.902042e-01 1.034794e+00
7 1 5.281900e-01 1.503025e-02 1.520552e+00
8 1 -6.685760e-03 4.936428e-01 1.520899e+00
9 1 -5.124945e-02 9.616563e-01 -6.083338e-03
10 1 5.215721e-01 1.513022e+00 -3.087999e-02
11 1 5.247835e-01 9.695082e-01 4.680807e-01
12 1 3.428013e-02 1.457660e+00 5.228587e-01
13 1 -2.765180e-02 1.015132e+00 9.730783e-01
14 1 5.077659e-01 1.504847e+00 1.038229e+00
15 1 4.677187e-01 1.006116e+00 1.456734e+00
16 1 -3.762984e-02 1.514973e+00 1.465687e+00
17 1 1.014345e+00 2.202274e-02 1.148782e-02
18 1 1.466667e+00 4.753498e-01 4.437570e-02
19 1 1.539693e+00 -3.237754e-02 5.440448e-01
20 1 9.997233e-01 4.771941e-01 5.236500e-01
21 1 1.010945e+00 -1.640212e-02 1.028422e+00
22 1 1.502805e+00 5.179056e-01 9.556031e-01
23 1 1.486649e+00 2.322659e-02 1.455147e+00
24 1 1.015782e+00 5.328543e-01 1.529774e+00
25 1 1.034730e+00 1.000593e+00 2.385737e-02
26 1 1.496227e+00 1.461567e+00 -4.661500e-02
27 1 1.480337e+00 1.027116e+00 5.100979e-01
28 1 9.596916e-01 1.530445e+00 4.839820e-01
29 1 9.956742e-01 1.031136e+00 1.006153e+00
30 1 1.461809e+00 1.484208e+00 1.013486e+00
31 1 1.490984e+00 9.489641e-01 1.483919e+00
32 1 1.008896e+00 1.513224e+00 1.531925e+00
ITEM: TIMESTEP
1.000000e-13
ITEM: NUMBER OF ATOMS
32
ITEM: BOX BOUNDS pp pp pp
0.0 2.000000e+00
0.0 2.000000e+00
0.0 2.000000e+00
ITEM: ATOMS id type x y z
1 1 -4.521618e-02 -1.833430e-02 5.440158e-03
2 1 5.204271e-01 5.205953e-01 -2.839860e-02
3 1 4.812889e-01 4.146298e-02 4.637825e-01
4 1 3.842419e-02 5.164275e-01 4.967765e-01
5 1 6.638526e-02 2.277388e-02 9.986371e-01
6 1 5.426010e-01 4.943871e-01 1.042754e+00
7 1 5.342459e-01 1.613190e-02 1.530717e+00
8 1 -3.338062e-02 4.577877e-01 1.502829e+00
9 1 -5.286344e-02 9.777627e-01 -2.782106e-02
10 1 4.752570e-01 1.496765e+00 -4.433589e-02
11 1 5.555345e-01 9.620262e-01 4.842378e-01
12 1 8.372681e-02 1.468562e+00 4.891259e-01
13 1 -2.178088e-02 9.778497e-01 1.002305e+00
14 1 5.304153e-01 1.534485e+00 1.038087e+00
15 1 4.357189e-01 1.002374e+00 1.483154e+00
16 1 -4.909778e-02 1.524246e+00 1.455838e+00
17 1 1.030447e+00 4.673641e-03 -4.520251e-03
18 1 1.489901e+00 4.885187e-01 8.927580e-02
19 1 1.559158e+00 -7.704528e-02 5.668495e-01
20 1 9.918313e-01 4.666297e-01 5.441978e-01
21 1 9.775155e-01 -4.567931e-03 1.014296e+00
22 1 1.500706e+00 5.144201e-01 9.382796e-01
23 1 1.484039e+00 5.521373e-02 1.461708e+00
24 1 1.014528e+00 5.325807e-01 1.506071e+00
25 1 1.016517e+00 9.779345e-01 9.572857e-03
26 1 1.510618e+00 1.483240e+00 -3.070026e-02
27 1 1.450767e+00 1.068851e+00 5.084758e-01
28 1 9.609932e-01 1.547322e+00 4.911905e-01
29 1 9.679664e-01 1.018748e+00 9.956457e-01
30 1 1.454045e+00 1.479885e+00 1.031305e+00
31 1 1.511711e+00 9.621593e-01 1.459789e+00
32 1 1.017571e+00 1.486134e+00 1.525436e+00
ITEM: TIMESTEP
1.500000e-13
ITEM: NUMBER OF ATOMS
32
ITEM: BOX BOUNDS pp pp pp
0.0 2.000000e+00
0.0 2.000000e+00
0.0 2.000000e+00
ITEM: ATOMS id type x y z
1 1 -2.659667e-02 -1.625442e-03 -1.235717e-02
2 1 4.991472e-01 5.303270e-01 -5.429799e-03
3 1 4.748710e-01 9.945658e-03 4.102622e-01
4 1 3.616524e-02 5.235359e-01 5.269619e-01
5 1 5.278765e-02 3.875763e-02 9.938654e-01
6 1 5.013472e-01 5.131856e-01 1.027309e+00
7 1 5.155708e-01 1.865774e-02 1.545899e+00
8 1 -7.647147e-03 4.649232e-01 1.501207e+00
9 1 -2.095607e-02 9.984477e-01 -2.169396e-02
10 1 4.444136e-01 1.462461e+00 -5.585217e-02
11 1 5.334332e-01 9.914632e-01 5.205433e-01
12 1 8.209112e-02 1.460610e+00 5.049895e-01
13 1 3.038491e-02 9.672258e-01 1.000218e+00
14 1 5.091407e-01 1.524579e+00 1.028218e+00
15 1 4.472901e-01 9.859019e-01 1.510167e+00
16 1 -1.769426e-02 1.546919e+00 1.465113e+00
17 1 1.040164e+00 -2.048217e-03 -2.345819e-02
18 1 1.523110e+00 5.085894e-01 1.027696e-01
19 1 1.554570e+00 -8.369059e-02 5.413686e-01
20 1 9.829862e-01 4.541967e-01 5.091367e-01
21 1 9.932311e-01 1.517122e-02 1.007573e+00
22 1 1.500848e+00 4.915479e-01 9.462357e-01
23 1 1.455891e+00 1.846726e-02 1.474775e+00
24 1 1.019403e+00 5.177275e-01 1.466842e+00
25 1 1.001917e+00 9.801884e-01 -3.613653e-02
26 1 1.512654e+00 1.519204e+00 3.312466e-03
27 1 1.469836e+00 1.077813e+00 5.193689e-01
28 1 9.624801e-01 1.548796e+00 4.856860e-01
29 1 9.664985e-01 9.885731e-01 1.020615e+00
30 1 1.463202e+00 1.495021e+00 1.045307e+00
31 1 1.505995e+00 9.874570e-01 1.472205e+00
32 1 9.934634e-01 1.447670e+00 1.524978e+00
ITEM: TIMESTEP
2.000000e-13
ITEM: NUMBER OF ATOMS
32
ITEM: BOX BOUNDS pp pp pp
0.0 2.000000e+00
0.0 2.000000e+00
0.0 2.000000e+00
ITEM: ATOMS id type x y z
1 1 -1.996986e-02 3.450641e-02 -3.633815e-02
2 1 4.643679e-01 5.297281e-01 -6.562150e-03
3 1 4.802849e-01 -2.770669e-02 4.146281e-01
4 1 3.696823e-02 5.317333e-01 5.116493e-01
5 1 1.897552e-02 2.374565e-03 9.853456e-01
6 1 4.929138e-01 4.759060e-01 1.008975e+00
7 1 5.171756e-01 2.827563e-02 1.539028e+00
8 1 -2.305609e-02 5.052948e-01 1.495993e+00
9 1 -2.786418e-02 1.006015e+00 1.469130e-02
10 1 4.742673e-01 1.468761e+00 -2.692458e-02
11 1 5.400785e-01 1.004785e+00 5.160088e-01
12 1 1.845055e-03 1.469788e+00 5.495247e-01
13 1 2.724710e-02 1.025607e+00 1.024751e+00
14 1 5.111995e-01 1.509712e+00 1.031675e+00
15 1 5.061677e-01 9.555989e-01 1.482932e+00
16 1 5.834316e-03 1.547680e+00 1.476964e+00
17 1 1.026690e+00 3.411229e-02 -2.218562e-02
18 1 1.526620e+00 5.035816e-01 6.141238e-02
19 1 1.540055e+00 -3.359752e-02 5.071705e-01
20 1 9.613123e-01 4.692273e-01 4.609738e-01
21 1 9.724642e-01 9.165422e-03 1.003308e+00
22 1 1.511030e+00 4.837717e-01 9.637875e-01
23 1 1.496712e+00 -9.855605e-03 1.484635e+00
24 1 1.013968e+00 4.888670e-01 1.489521e+00
25 1 1.019638e+00 9.646176e-01 -9.982655e-03
26 1 1.509882e+00 1.509483e+00 -1.873041e-02
27 1 1.494819e+00 1.037760e+00 5.424110e-01
28 1 9.573065e-01 1.523800e+00 4.717812e-01
29 1 1.000704e+00 9.893247e-01 1.027610e+00
30 1 1.470254e+00 1.508759e+00 1.032364e+00
31 1 1.534454e+00 9.722824e-01 1.500907e+00
32 1 9.576550e-01 1.480643e+00 1.522677e+00
ITEM: TIMESTEP
2.500000e-13
ITEM: NUMBER OF ATOMS
32
ITEM: BOX BOUNDS pp pp pp
0.0 2.000000e+00
0.0 2.000000e+00
0.0 2.000000e+00
ITEM: ATOMS id type x y z
1 1 -5.511742e-03 2.765694e-02 -2.748617e-02
2 1 4.516885e-01 5.339370e-01 -2.238272e-02
3 1 4.459269e-01 -3.339821e-02 4.760449e-01
4 1 2.707825e-02 5.348721e-01 5.205990e-01
5 1 1.146149e-03 -3.070729e-02 9.984749e-01
6 1 4.906597e-01 4.497316e-01 9.872774e-01
7 1 4.978074e-01 2.857908e-02 1.513052e+00
8 1 -1.469363e-02 5.035991e-01 1.453711e+00
9 1 -1.369645e-02 1.022328e+00 3.451458e-02
10 1 4.795611e-01 1.458469e+00 6.468928e-03
11 1 5.307890e-01 1.017788e+00 5.174700e-01
12 1 -4.595059e-02 1.499059e+00 5.331523e-01
13 1 -3.298273e-03 1.048000e+00 1.052230e+00
14 1 5.299625e-01 1.504294e+00 1.009559e+00
15 1 5.437670e-01 9.588559e-01 1.480909e+00
16 1 3.256289e-02 1.508718e+00 1.513268e+00
17 1 1.017300e+00 1.887093e-02 -9.724845e-03
18 1 1.513065e+00 5.009336e-01 1.497341e-03
19 1 1.494819e+00 2.252373e-02 4.762147e-01
20 1 9.541518e-01 4.844733e-01 4.841775e-01
21 1 9.680122e-01 -7.360557e-03 9.821166e-01
22 1 1.509510e+00 4.761379e-01 9.786125e-01
23 1 1.523211e+00 1.984743e-02 1.484018e+00
24 1 1.041553e+00 4.805371e-01 1.523034e+00
25 1 1.043418e+00 9.696982e-01 1.876562e-02
26 1 1.497651e+00 1.491647e+00 -4.735327e-02
27 1 1.489636e+00 9.761884e-01 5.417973e-01
28 1 1.020073e+00 1.502458e+00 4.555159e-01
29 1 1.034295e+00 9.796914e-01 1.008494e+00
30 1 1.457305e+00 1.522860e+00 1.016286e+00
31 1 1.510410e+00 9.914660e-01 1.509819e+00
32 1 9.777915e-01 1.538244e+00 1.529868e+00
ITEM: TIMESTEP
3.000000e-13
ITEM: NUMBER OF ATOMS
32
ITEM: BOX BOUNDS pp pp pp
0.0 2.000000e+00
0.0 2.000000e+00
0.0 2.000000e+00
ITEM: ATOMS id type x y z
1 1 -1.405045e-03 -1.161791e-02 1.082098e-03
2 1 4.774770e-01 5.309821e-01 -1.874150e-02
3 1 4.463626e-01 -2.722610e-02 5.166566e-01
4 1 -4.695316e-03 5.258036e-01 5.411783e-01
5 1 -1.011921e-02 -5.272715e-02 1.025862e+00
6 1 4.908667e-01 4.853256e-01 9.916355e-01
7 1 4.758562e-01 1.277470e-02 1.498474e+00
8 1 1.619398e-02 5.077593e-01 1.443091e+00
9 1 -2.256587e-02 1.005535e+00 2.118174e-02
10 1 5.084593e-01 1.468731e+00 3.576311e-02
11 1 4.998699e-01 1.024018e+00 5.435792e-01
12 1 -8.742399e-02 1.500071e+00 4.770095e-01
13 1 -2.813042e-02 1.038910e+00 1.016510e+00
14 1 5.431260e-01 1.491572e+00 9.815290e-01
15 1 5.693459e-01 9.972609e-01 1.474973e+00
16 1 4.292328e-02 1.481234e+00 1.544353e+00
17 1 9.693538e-01 -3.243731e-03 3.096763e-02
18 1 1.547860e+00 5.220536e-01 -3.469738e-02
19 1 1.487166e+00 5.735247e-02 4.564117e-01
20 1 9.560352e-01 4.786220e-01 5.110866e-01
21 1 1.003361e+00 8.556738e-03 9.617767e-01
22 1 1.494047e+00 4.528706e-01 9.988212e-01
23 1 1.523461e+00 1.357972e-02 1.503724e+00
24 1 1.036598e+00 4.813164e-01 1.500553e+00
25 1 1.019884e+00 9.948961e-01 2.534946e-02
26 1 1.516148e+00 1.510447e+00 -4.032577e-02
27 1 1.497084e+00 9.362557e-01 5.039547e-01
28 1 1.091993e+00 1.502838e+00 4.673190e-01
29 1 1.029808e+00 9.587789e-01 9.951027e-01
30 1 1.457117e+00 1.528361e+00 1.017547e+00
31 1 1.459101e+00 1.022426e+00 1.487624e+00
32 1 9.948448e-01 1.556483e+00 1.520650e+00
